REMARK Escitalopram PDBQT
REMARK Charges: simplified Gasteiger approximation
REMARK For accurate results, regenerate with openbabel --partialcharge gasteiger
ROOT
ATOM      8  C7  UNL     1      -0.922   0.226  -0.927  1.00  0.00     0.180 C 
ATOM      9  O1  UNL     1      -1.570   0.379  -2.242  1.00  0.00    -0.270 OA
ATOM     10  C8  UNL     1      -2.851  -0.276  -2.240  1.00  0.00     0.000 C 
ATOM     11  C9  UNL     1      -2.693  -1.326  -1.208  1.00  0.00    -0.073 A 
ATOM     12  C10 UNL     1      -3.500  -2.429  -0.969  1.00  0.00     0.000 C 
ATOM     13  C11 UNL     1      -3.156  -3.290   0.077  1.00  0.00     0.100 A 
ATOM     14  C12 UNL     1      -3.962  -4.444   0.351  1.00  0.00     0.000 C 
ATOM     15  N1  UNL     1      -4.615  -5.377   0.574  1.00  0.00    -0.413 NA
ATOM     16  C13 UNL     1      -2.022  -3.024   0.862  1.00  0.00     0.000 C 
ATOM     17  C14 UNL     1      -1.225  -1.900   0.610  1.00  0.00     0.000 C 
ATOM     18  C15 UNL     1      -1.569  -1.048  -0.432  1.00  0.00    -0.073 A 
ATOM     29  H5  UNL     1      -3.627   0.447  -1.972  1.00  0.00     0.057 H 
ATOM     30  H6  UNL     1      -3.034  -0.687  -3.236  1.00  0.00     0.057 H 
ATOM     31  H7  UNL     1      -4.375  -2.617  -1.586  1.00  0.00     0.057 H 
ATOM     32  H8  UNL     1      -1.755  -3.691   1.680  1.00  0.00     0.057 H 
ATOM     33  H9  UNL     1      -0.368  -1.708   1.246  1.00  0.00     0.057 H 
ENDROOT
BRANCH  8  5
ATOM      5  C4  UNL     1      -1.243   1.503  -0.139  1.00  0.00    -0.073 A 
ATOM      4  C3  UNL     1      -1.615   1.486   1.218  1.00  0.00     0.000 C 
ATOM      3  C2  UNL     1      -1.880   2.675   1.905  1.00  0.00     0.000 C 
ATOM      2  C1  UNL     1      -1.772   3.891   1.245  1.00  0.00    -0.073 A 
ATOM      1  F1  UNL     1      -2.027   5.027   1.907  1.00  0.00    -0.218 F 
ATOM      6  C5  UNL     1      -1.137   2.758  -0.777  1.00  0.00     0.000 C 
ATOM      7  C6  UNL     1      -1.402   3.944  -0.090  1.00  0.00     0.000 C 
ATOM     26  H2  UNL     1      -1.705   0.554   1.767  1.00  0.00     0.057 H 
ATOM     25  H1  UNL     1      -2.168   2.657   2.951  1.00  0.00     0.057 H 
ATOM     27  H3  UNL     1      -0.849   2.813  -1.826  1.00  0.00     0.057 H 
ATOM     28  H4  UNL     1      -1.321   4.904  -0.589  1.00  0.00     0.057 H 
ENDBRANCH  8  5
BRANCH  8 19
ATOM     19  C16 UNL     1       0.586   0.098  -1.258  1.00  0.00     0.000 C 
ATOM     34  H10 UNL     1       0.754  -0.834  -1.817  1.00  0.00     0.057 H 
ATOM     35  H11 UNL     1       0.860   0.897  -1.962  1.00  0.00     0.057 H 
BRANCH 19 20
ATOM     20  C17 UNL     1       1.558   0.154  -0.073  1.00  0.00     0.000 C 
ATOM     36  H12 UNL     1       1.362  -0.679   0.603  1.00  0.00     0.057 H 
ATOM     37  H13 UNL     1       1.413   1.081   0.493  1.00  0.00     0.057 H 
BRANCH 20 21
ATOM     21  C18 UNL     1       3.014   0.091  -0.561  1.00  0.00     0.000 C 
ATOM     38  H14 UNL     1       3.155   0.916  -1.272  1.00  0.00     0.057 H 
ATOM     39  H15 UNL     1       3.186  -0.840  -1.117  1.00  0.00     0.057 H 
BRANCH 21 22
ATOM     22  N2  UNL     1       3.987   0.236   0.534  1.00  0.00    -0.312 NA
BRANCH 22 23
ATOM     23  C19 UNL     1       5.325   0.474  -0.015  1.00  0.00     0.000 C 
ATOM     40  H16 UNL     1       5.337   1.388  -0.619  1.00  0.00     0.057 H 
ATOM     41  H17 UNL     1       5.670  -0.358  -0.639  1.00  0.00     0.057 H 
ATOM     42  H18 UNL     1       6.052   0.626   0.791  1.00  0.00     0.057 H 
ENDBRANCH 22 23
BRANCH 22 24
ATOM     24  C20 UNL     1       4.019  -0.941   1.405  1.00  0.00     0.000 C 
ATOM     43  H19 UNL     1       3.066  -1.078   1.926  1.00  0.00     0.057 H 
ATOM     44  H20 UNL     1       4.249  -1.859   0.852  1.00  0.00     0.057 H 
ATOM     45  H21 UNL     1       4.774  -0.817   2.191  1.00  0.00     0.057 H 
ENDBRANCH 22 24
ENDBRANCH 21 22
ENDBRANCH 20 21
ENDBRANCH 19 20
ENDBRANCH  8 19
TORSDOF 5
